   8   8   0   0
  0.2000000E+02  0.5428835E-09  0.5428835E-09  0.5428835E-09  0.5000000E-15
  1.000000000000000E-004
  CAR 
 unknown system                          
     12.03420491     -8.09598652 1000      5.78885836      1.00000000
     -8.096  0.0000E+00  0.0000E+00
     -8.076  0.0000E+00  0.0000E+00
     -8.056  0.0000E+00  0.0000E+00
     -8.036  0.0000E+00  0.0000E+00
     -8.015  0.0000E+00  0.0000E+00
     -7.995  0.0000E+00  0.0000E+00
     -7.975  0.0000E+00  0.0000E+00
     -7.955  0.0000E+00  0.0000E+00
     -7.935  0.0000E+00  0.0000E+00
     -7.915  0.0000E+00  0.0000E+00
     -7.894  0.0000E+00  0.0000E+00
     -7.874  0.0000E+00  0.0000E+00
     -7.854  0.0000E+00  0.0000E+00
     -7.834  0.0000E+00  0.0000E+00
     -7.814  0.0000E+00  0.0000E+00
     -7.794  0.0000E+00  0.0000E+00
     -7.774  0.0000E+00  0.0000E+00
     -7.753  0.0000E+00  0.0000E+00
     -7.733  0.0000E+00  0.0000E+00
     -7.713  0.0000E+00  0.0000E+00
     -7.693  0.0000E+00  0.0000E+00
     -7.673  0.0000E+00  0.0000E+00
     -7.653  0.0000E+00  0.0000E+00
     -7.633  0.0000E+00  0.0000E+00
     -7.612  0.0000E+00  0.0000E+00
     -7.592  0.0000E+00  0.0000E+00
     -7.572  0.0000E+00  0.0000E+00
     -7.552  0.0000E+00  0.0000E+00
     -7.532  0.0000E+00  0.0000E+00
     -7.512  0.0000E+00  0.0000E+00
     -7.491  0.0000E+00  0.0000E+00
     -7.471  0.0000E+00  0.0000E+00
     -7.451  0.0000E+00  0.0000E+00
     -7.431  0.0000E+00  0.0000E+00
     -7.411  0.0000E+00  0.0000E+00
     -7.391  0.0000E+00  0.0000E+00
     -7.371  0.0000E+00  0.0000E+00
     -7.350  0.0000E+00  0.0000E+00
     -7.330  0.0000E+00  0.0000E+00
     -7.310  0.0000E+00  0.0000E+00
     -7.290  0.0000E+00  0.0000E+00
     -7.270  0.0000E+00  0.0000E+00
     -7.250  0.0000E+00  0.0000E+00
     -7.230  0.0000E+00  0.0000E+00
     -7.209  0.0000E+00  0.0000E+00
     -7.189  0.0000E+00  0.0000E+00
     -7.169  0.0000E+00  0.0000E+00
     -7.149  0.0000E+00  0.0000E+00
     -7.129  0.0000E+00  0.0000E+00
     -7.109  0.0000E+00  0.0000E+00
     -7.088  0.0000E+00  0.0000E+00
     -7.068  0.0000E+00  0.0000E+00
     -7.048  0.0000E+00  0.0000E+00
     -7.028  0.0000E+00  0.0000E+00
     -7.008  0.0000E+00  0.0000E+00
     -6.988  0.0000E+00  0.0000E+00
     -6.968  0.0000E+00  0.0000E+00
     -6.947  0.0000E+00  0.0000E+00
     -6.927  0.0000E+00  0.0000E+00
     -6.907  0.0000E+00  0.0000E+00
     -6.887  0.0000E+00  0.0000E+00
     -6.867  0.0000E+00  0.0000E+00
     -6.847  0.0000E+00  0.0000E+00
     -6.827  0.0000E+00  0.0000E+00
     -6.806  0.0000E+00  0.0000E+00
     -6.786  0.0000E+00  0.0000E+00
     -6.766  0.0000E+00  0.0000E+00
     -6.746  0.0000E+00  0.0000E+00
     -6.726  0.0000E+00  0.0000E+00
     -6.706  0.0000E+00  0.0000E+00
     -6.685  0.0000E+00  0.0000E+00
     -6.665  0.0000E+00  0.0000E+00
     -6.645  0.0000E+00  0.0000E+00
     -6.625  0.0000E+00  0.0000E+00
     -6.605  0.0000E+00  0.0000E+00
     -6.585  0.0000E+00  0.0000E+00
     -6.565  0.0000E+00  0.0000E+00
     -6.544  0.0000E+00  0.0000E+00
     -6.524  0.0000E+00  0.0000E+00
     -6.504  0.0000E+00  0.0000E+00
     -6.484  0.0000E+00  0.0000E+00
     -6.464  0.0000E+00  0.0000E+00
     -6.444  0.0000E+00  0.0000E+00
     -6.424  0.0000E+00  0.0000E+00
     -6.403  0.0000E+00  0.0000E+00
     -6.383  0.0000E+00  0.0000E+00
     -6.363  0.0000E+00  0.0000E+00
     -6.343  0.0000E+00  0.0000E+00
     -6.323  0.0000E+00  0.0000E+00
     -6.303  0.0000E+00  0.0000E+00
     -6.282  0.0000E+00  0.0000E+00
     -6.262  0.0000E+00  0.0000E+00
     -6.242  0.0000E+00  0.0000E+00
     -6.222  0.0000E+00  0.0000E+00
     -6.202  0.0000E+00  0.0000E+00
     -6.182  0.0000E+00  0.0000E+00
     -6.162  0.0000E+00  0.0000E+00
     -6.141  0.0000E+00  0.0000E+00
     -6.121  0.0000E+00  0.0000E+00
     -6.101  0.0000E+00  0.0000E+00
     -6.081  0.1872E+00  0.4432E-02
     -6.061  0.2627E+00  0.8948E-02
     -6.041  0.3479E+00  0.1508E-01
     -6.021  0.4429E+00  0.2304E-01
     -6.000  0.4533E+00  0.3234E-01
     -5.980  0.4916E+00  0.4187E-01
     -5.960  0.5250E+00  0.5212E-01
     -5.940  0.5535E+00  0.6299E-01
     -5.920  0.5787E+00  0.7439E-01
     -5.900  0.6179E+00  0.8645E-01
     -5.879  0.6598E+00  0.9932E-01
     -5.859  0.7044E+00  0.1131E+00
     -5.839  0.7517E+00  0.1277E+00
     -5.819  0.7608E+00  0.1429E+00
     -5.799  0.7835E+00  0.1585E+00
     -5.779  0.8024E+00  0.1744E+00
     -5.759  0.8174E+00  0.1908E+00
     -5.738  0.8358E+00  0.2074E+00
     -5.718  0.8595E+00  0.2245E+00
     -5.698  0.8847E+00  0.2420E+00
     -5.678  0.9112E+00  0.2601E+00
     -5.658  0.9390E+00  0.2788E+00
     -5.638  0.9670E+00  0.2980E+00
     -5.617  0.9950E+00  0.3177E+00
     -5.597  0.1023E+01  0.3381E+00
     -5.577  0.1051E+01  0.3590E+00
     -5.557  0.1061E+01  0.3802E+00
     -5.537  0.1078E+01  0.4017E+00
     -5.517  0.1094E+01  0.4236E+00
     -5.497  0.1109E+01  0.4458E+00
     -5.476  0.1125E+01  0.4683E+00
     -5.456  0.1144E+01  0.4912E+00
     -5.436  0.1163E+01  0.5144E+00
     -5.416  0.1182E+01  0.5381E+00
     -5.396  0.1202E+01  0.5621E+00
     -5.376  0.1221E+01  0.5865E+00
     -5.356  0.1241E+01  0.6113E+00
     -5.335  0.1260E+01  0.6365E+00
     -5.315  0.1281E+01  0.6621E+00
     -5.295  0.1303E+01  0.6881E+00
     -5.275  0.1326E+01  0.7146E+00
     -5.255  0.1350E+01  0.7416E+00
     -5.235  0.1374E+01  0.7690E+00
     -5.214  0.1685E+01  0.8069E+00
     -5.194  0.1738E+01  0.8414E+00
     -5.174  0.1783E+01  0.8769E+00
     -5.154  0.1819E+01  0.9132E+00
     -5.134  0.1665E+01  0.9479E+00
     -5.114  0.1638E+01  0.9812E+00
     -5.094  0.1611E+01  0.1014E+01
     -5.073  0.1583E+01  0.1046E+01
     -5.053  0.1571E+01  0.1078E+01
     -5.033  0.1563E+01  0.1109E+01
     -5.013  0.1553E+01  0.1141E+01
     -4.993  0.1541E+01  0.1172E+01
     -4.973  0.1465E+01  0.1202E+01
     -4.953  0.1432E+01  0.1231E+01
     -4.932  0.1399E+01  0.1260E+01
     -4.912  0.1367E+01  0.1288E+01
     -4.892  0.1350E+01  0.1315E+01
     -4.872  0.1331E+01  0.1342E+01
     -4.852  0.1312E+01  0.1369E+01
     -4.832  0.1291E+01  0.1395E+01
     -4.811  0.1270E+01  0.1421E+01
     -4.791  0.1641E+01  0.1456E+01
     -4.771  0.1731E+01  0.1490E+01
     -4.751  0.1829E+01  0.1526E+01
     -4.731  0.1906E+01  0.1563E+01
     -4.711  0.1793E+01  0.1600E+01
     -4.691  0.1803E+01  0.1636E+01
     -4.670  0.1815E+01  0.1673E+01
     -4.650  0.1830E+01  0.1710E+01
     -4.630  0.1869E+01  0.1747E+01
     -4.610  0.1911E+01  0.1785E+01
     -4.590  0.1954E+01  0.1824E+01
     -4.570  0.1945E+01  0.1864E+01
     -4.550  0.1956E+01  0.1903E+01
     -4.529  0.1975E+01  0.1943E+01
     -4.509  0.1987E+01  0.1982E+01
     -4.489  0.2016E+01  0.2023E+01
     -4.469  0.2044E+01  0.2064E+01
     -4.449  0.2073E+01  0.2105E+01
     -4.429  0.2207E+01  0.2154E+01
     -4.408  0.2193E+01  0.2198E+01
     -4.388  0.2182E+01  0.2242E+01
     -4.368  0.2088E+01  0.2286E+01
     -4.348  0.2112E+01  0.2328E+01
     -4.328  0.2200E+01  0.2372E+01
     -4.308  0.2246E+01  0.2417E+01
     -4.288  0.2284E+01  0.2462E+01
     -4.267  0.2303E+01  0.2509E+01
     -4.247  0.2293E+01  0.2555E+01
     -4.227  0.2309E+01  0.2601E+01
     -4.207  0.2324E+01  0.2648E+01
     -4.187  0.2339E+01  0.2695E+01
     -4.167  0.2367E+01  0.2742E+01
     -4.147  0.2382E+01  0.2790E+01
     -4.126  0.2395E+01  0.2838E+01
     -4.106  0.2408E+01  0.2887E+01
     -4.086  0.2432E+01  0.2935E+01
     -4.066  0.2556E+01  0.2986E+01
     -4.046  0.3094E+01  0.3055E+01
     -4.026  0.3107E+01  0.3117E+01
     -4.005  0.2868E+01  0.3179E+01
     -3.985  0.2867E+01  0.3236E+01
     -3.965  0.2860E+01  0.3294E+01
     -3.945  0.2848E+01  0.3352E+01
     -3.925  0.2727E+01  0.3410E+01
     -3.905  0.2706E+01  0.3465E+01
     -3.885  0.2670E+01  0.3519E+01
     -3.864  0.2643E+01  0.3573E+01
     -3.844  0.2632E+01  0.3626E+01
     -3.824  0.3018E+01  0.3687E+01
     -3.804  0.2901E+01  0.3747E+01
     -3.784  0.2788E+01  0.3804E+01
     -3.764  0.2591E+01  0.3862E+01
     -3.744  0.2710E+01  0.3915E+01
     -3.723  0.2860E+01  0.3971E+01
     -3.703  0.3811E+01  0.4038E+01
     -3.683  0.4867E+01  0.4125E+01
     -3.663  0.3959E+01  0.4215E+01
     -3.643  0.4092E+01  0.4296E+01
     -3.623  0.4088E+01  0.4379E+01
     -3.602  0.3846E+01  0.4459E+01
     -3.582  0.3187E+01  0.4533E+01
     -3.562  0.3140E+01  0.4597E+01
     -3.542  0.3077E+01  0.4660E+01
     -3.522  0.3011E+01  0.4721E+01
     -3.502  0.2985E+01  0.4781E+01
     -3.482  0.2988E+01  0.4841E+01
     -3.461  0.3041E+01  0.4902E+01
     -3.441  0.3102E+01  0.4964E+01
     -3.421  0.3198E+01  0.5027E+01
     -3.401  0.3322E+01  0.5093E+01
     -3.381  0.3479E+01  0.5161E+01
     -3.361  0.3674E+01  0.5233E+01
     -3.341  0.3748E+01  0.5308E+01
     -3.320  0.3011E+01  0.5378E+01
     -3.300  0.2945E+01  0.5438E+01
     -3.280  0.2869E+01  0.5497E+01
     -3.260  0.2799E+01  0.5554E+01
     -3.240  0.2760E+01  0.5610E+01
     -3.220  0.2724E+01  0.5665E+01
     -3.199  0.2689E+01  0.5719E+01
     -3.179  0.2656E+01  0.5773E+01
     -3.159  0.2534E+01  0.5826E+01
     -3.139  0.2516E+01  0.5876E+01
     -3.119  0.2498E+01  0.5927E+01
     -3.099  0.2484E+01  0.5977E+01
     -3.079  0.2472E+01  0.6027E+01
     -3.058  0.2728E+01  0.6078E+01
     -3.038  0.2714E+01  0.6133E+01
     -3.018  0.2589E+01  0.6187E+01
     -2.998  0.2562E+01  0.6238E+01
     -2.978  0.2636E+01  0.6291E+01
     -2.958  0.2754E+01  0.6345E+01
     -2.937  0.2899E+01  0.6402E+01
     -2.917  0.3151E+01  0.6462E+01
     -2.897  0.3917E+01  0.6528E+01
     -2.877  0.2585E+01  0.6583E+01
     -2.857  0.2486E+01  0.6634E+01
     -2.837  0.2397E+01  0.6683E+01
     -2.817  0.2318E+01  0.6731E+01
     -2.796  0.2249E+01  0.6777E+01
     -2.776  0.2190E+01  0.6821E+01
     -2.756  0.2131E+01  0.6865E+01
     -2.736  0.2078E+01  0.6907E+01
     -2.716  0.2029E+01  0.6949E+01
     -2.696  0.1984E+01  0.6989E+01
     -2.676  0.1944E+01  0.7029E+01
     -2.655  0.1933E+01  0.7068E+01
     -2.635  0.1900E+01  0.7106E+01
     -2.615  0.1815E+01  0.7144E+01
     -2.595  0.1793E+01  0.7180E+01
     -2.575  0.1770E+01  0.7216E+01
     -2.555  0.1747E+01  0.7251E+01
     -2.534  0.1723E+01  0.7286E+01
     -2.514  0.1699E+01  0.7321E+01
     -2.494  0.1674E+01  0.7355E+01
     -2.474  0.1654E+01  0.7388E+01
     -2.454  0.1664E+01  0.7422E+01
     -2.434  0.1679E+01  0.7455E+01
     -2.414  0.1692E+01  0.7489E+01
     -2.393  0.1704E+01  0.7523E+01
     -2.373  0.1735E+01  0.7558E+01
     -2.353  0.1790E+01  0.7594E+01
     -2.333  0.3361E+01  0.7656E+01
     -2.313  0.2988E+01  0.7765E+01
     -2.293  0.2331E+01  0.7818E+01
     -2.273  0.1764E+01  0.7859E+01
     -2.252  0.1322E+01  0.7890E+01
     -2.232  0.1133E+01  0.7914E+01
     -2.212  0.9566E+00  0.7936E+01
     -2.192  0.9716E+00  0.7953E+01
     -2.172  0.8237E+00  0.7971E+01
     -2.152  0.6837E+00  0.7987E+01
     -2.131  0.0000E+00  0.8000E+01
     -2.111  0.0000E+00  0.8000E+01
     -2.091  0.0000E+00  0.8000E+01
     -2.071  0.0000E+00  0.8000E+01
     -2.051  0.0000E+00  0.8000E+01
     -2.031  0.0000E+00  0.8000E+01
     -2.011  0.0000E+00  0.8000E+01
     -1.990  0.0000E+00  0.8000E+01
     -1.970  0.0000E+00  0.8000E+01
     -1.950  0.0000E+00  0.8000E+01
     -1.930  0.0000E+00  0.8000E+01
     -1.910  0.0000E+00  0.8000E+01
     -1.890  0.0000E+00  0.8000E+01
     -1.870  0.0000E+00  0.8000E+01
     -1.849  0.0000E+00  0.8000E+01
     -1.829  0.0000E+00  0.8000E+01
     -1.809  0.0000E+00  0.8000E+01
     -1.789  0.0000E+00  0.8000E+01
     -1.769  0.0000E+00  0.8000E+01
     -1.749  0.0000E+00  0.8000E+01
     -1.728  0.0000E+00  0.8000E+01
     -1.708  0.0000E+00  0.8000E+01
     -1.688  0.0000E+00  0.8000E+01
     -1.668  0.0000E+00  0.8000E+01
     -1.648  0.0000E+00  0.8000E+01
     -1.628  0.0000E+00  0.8000E+01
     -1.608  0.0000E+00  0.8000E+01
     -1.587  0.0000E+00  0.8000E+01
     -1.567  0.3392E+01  0.8042E+01
     -1.547  0.2585E+01  0.8091E+01
     -1.527  0.2507E+01  0.8144E+01
     -1.507  0.3773E+01  0.8206E+01
     -1.487  0.1959E+01  0.8265E+01
     -1.467  0.1807E+01  0.8303E+01
     -1.446  0.1700E+01  0.8337E+01
     -1.426  0.1703E+01  0.8371E+01
     -1.406  0.1706E+01  0.8406E+01
     -1.386  0.1708E+01  0.8440E+01
     -1.366  0.1711E+01  0.8475E+01
     -1.346  0.1705E+01  0.8509E+01
     -1.325  0.1690E+01  0.8543E+01
     -1.305  0.1715E+01  0.8577E+01
     -1.285  0.1752E+01  0.8612E+01
     -1.265  0.1793E+01  0.8648E+01
     -1.245  0.1836E+01  0.8685E+01
     -1.225  0.1883E+01  0.8722E+01
     -1.205  0.1942E+01  0.8761E+01
     -1.184  0.1984E+01  0.8800E+01
     -1.164  0.2026E+01  0.8841E+01
     -1.144  0.2067E+01  0.8882E+01
     -1.124  0.2108E+01  0.8924E+01
     -1.104  0.2147E+01  0.8967E+01
     -1.084  0.2834E+01  0.9023E+01
     -1.064  0.3715E+01  0.9086E+01
     -1.043  0.3813E+01  0.9163E+01
     -1.023  0.3994E+01  0.9241E+01
     -1.003  0.4509E+01  0.9326E+01
     -0.983  0.5820E+01  0.9428E+01
     -0.963  0.7077E+01  0.9558E+01
     -0.943  0.9378E+01  0.9723E+01
     -0.922  0.6828E+01  0.9891E+01
     -0.902  0.6351E+01  0.1002E+02
     -0.882  0.5757E+01  0.1014E+02
     -0.862  0.5553E+01  0.1026E+02
     -0.842  0.5385E+01  0.1037E+02
     -0.822  0.5136E+01  0.1048E+02
     -0.802  0.4760E+01  0.1058E+02
     -0.781  0.4720E+01  0.1067E+02
     -0.761  0.3813E+01  0.1076E+02
     -0.741  0.3695E+01  0.1083E+02
     -0.721  0.3629E+01  0.1091E+02
     -0.701  0.3562E+01  0.1098E+02
     -0.681  0.3493E+01  0.1105E+02
     -0.661  0.3424E+01  0.1112E+02
     -0.640  0.3354E+01  0.1119E+02
     -0.620  0.3283E+01  0.1125E+02
     -0.600  0.3190E+01  0.1132E+02
     -0.580  0.3111E+01  0.1138E+02
     -0.560  0.3028E+01  0.1144E+02
     -0.540  0.2944E+01  0.1150E+02
     -0.519  0.2841E+01  0.1156E+02
     -0.499  0.2763E+01  0.1162E+02
     -0.479  0.2707E+01  0.1167E+02
     -0.459  0.2653E+01  0.1173E+02
     -0.439  0.2622E+01  0.1178E+02
     -0.419  0.2587E+01  0.1183E+02
     -0.399  0.2551E+01  0.1189E+02
     -0.378  0.2515E+01  0.1194E+02
     -0.358  0.2549E+01  0.1199E+02
     -0.338  0.2485E+01  0.1204E+02
     -0.318  0.2422E+01  0.1209E+02
     -0.298  0.2364E+01  0.1214E+02
     -0.278  0.2323E+01  0.1218E+02
     -0.258  0.2284E+01  0.1223E+02
     -0.237  0.2248E+01  0.1228E+02
     -0.217  0.2214E+01  0.1232E+02
     -0.197  0.2181E+01  0.1236E+02
     -0.177  0.2149E+01  0.1241E+02
     -0.157  0.2162E+01  0.1245E+02
     -0.137  0.2133E+01  0.1250E+02
     -0.116  0.2031E+01  0.1254E+02
     -0.096  0.2023E+01  0.1258E+02
     -0.076  0.2017E+01  0.1262E+02
     -0.056  0.1996E+01  0.1266E+02
     -0.036  0.1970E+01  0.1270E+02
     -0.016  0.1938E+01  0.1274E+02
      0.004  0.1806E+01  0.1278E+02
      0.025  0.1786E+01  0.1282E+02
      0.045  0.1767E+01  0.1285E+02
      0.065  0.1749E+01  0.1289E+02
      0.085  0.1731E+01  0.1292E+02
      0.105  0.1715E+01  0.1296E+02
      0.125  0.1700E+01  0.1299E+02
      0.146  0.1686E+01  0.1303E+02
      0.166  0.1673E+01  0.1306E+02
      0.186  0.1662E+01  0.1310E+02
      0.206  0.1660E+01  0.1313E+02
      0.226  0.1658E+01  0.1316E+02
      0.246  0.1656E+01  0.1320E+02
      0.266  0.1653E+01  0.1323E+02
      0.287  0.1584E+01  0.1327E+02
      0.307  0.1577E+01  0.1331E+02
      0.327  0.1570E+01  0.1334E+02
      0.347  0.1566E+01  0.1337E+02
      0.367  0.1559E+01  0.1340E+02
      0.387  0.1550E+01  0.1343E+02
      0.407  0.1541E+01  0.1346E+02
      0.428  0.1531E+01  0.1349E+02
      0.448  0.1520E+01  0.1352E+02
      0.468  0.1508E+01  0.1356E+02
      0.488  0.1496E+01  0.1359E+02
      0.508  0.1483E+01  0.1362E+02
      0.528  0.1416E+01  0.1364E+02
      0.549  0.1405E+01  0.1367E+02
      0.569  0.1393E+01  0.1370E+02
      0.589  0.1381E+01  0.1373E+02
      0.609  0.1369E+01  0.1376E+02
      0.629  0.1358E+01  0.1378E+02
      0.649  0.1346E+01  0.1381E+02
      0.669  0.1334E+01  0.1384E+02
      0.690  0.1321E+01  0.1387E+02
      0.710  0.1309E+01  0.1389E+02
      0.730  0.1248E+01  0.1392E+02
      0.750  0.1239E+01  0.1394E+02
      0.770  0.1248E+01  0.1397E+02
      0.790  0.1235E+01  0.1400E+02
      0.810  0.1224E+01  0.1402E+02
      0.831  0.1212E+01  0.1405E+02
      0.851  0.1201E+01  0.1407E+02
      0.871  0.1191E+01  0.1410E+02
      0.891  0.1181E+01  0.1412E+02
      0.911  0.1171E+01  0.1414E+02
      0.931  0.1162E+01  0.1417E+02
      0.952  0.1153E+01  0.1419E+02
      0.972  0.1144E+01  0.1421E+02
      0.992  0.1135E+01  0.1424E+02
      1.012  0.1128E+01  0.1426E+02
      1.032  0.1120E+01  0.1428E+02
      1.052  0.1113E+01  0.1431E+02
      1.072  0.1106E+01  0.1433E+02
      1.093  0.1100E+01  0.1435E+02
      1.113  0.1095E+01  0.1437E+02
      1.133  0.1089E+01  0.1439E+02
      1.153  0.1085E+01  0.1442E+02
      1.173  0.1088E+01  0.1444E+02
      1.193  0.1086E+01  0.1446E+02
      1.213  0.1084E+01  0.1448E+02
      1.234  0.1083E+01  0.1450E+02
      1.254  0.1080E+01  0.1453E+02
      1.274  0.1146E+01  0.1455E+02
      1.294  0.1166E+01  0.1457E+02
      1.314  0.1188E+01  0.1459E+02
      1.334  0.1213E+01  0.1462E+02
      1.355  0.1244E+01  0.1464E+02
      1.375  0.1277E+01  0.1467E+02
      1.395  0.1319E+01  0.1469E+02
      1.415  0.1370E+01  0.1472E+02
      1.435  0.1431E+01  0.1475E+02
      1.455  0.1502E+01  0.1478E+02
      1.475  0.1582E+01  0.1481E+02
      1.496  0.2459E+01  0.1485E+02
      1.516  0.2310E+01  0.1490E+02
      1.536  0.2239E+01  0.1495E+02
      1.556  0.2203E+01  0.1499E+02
      1.576  0.2695E+01  0.1504E+02
      1.596  0.2777E+01  0.1510E+02
      1.616  0.2606E+01  0.1515E+02
      1.637  0.2481E+01  0.1521E+02
      1.657  0.2896E+01  0.1526E+02
      1.677  0.2952E+01  0.1532E+02
      1.697  0.3018E+01  0.1538E+02
      1.717  0.3093E+01  0.1544E+02
      1.737  0.4761E+01  0.1550E+02
      1.758  0.5732E+01  0.1561E+02
      1.778  0.5239E+01  0.1573E+02
      1.798  0.5287E+01  0.1583E+02
      1.818  0.5030E+01  0.1595E+02
      1.838  0.4955E+01  0.1605E+02
      1.858  0.4925E+01  0.1615E+02
      1.878  0.4888E+01  0.1626E+02
      1.899  0.4691E+01  0.1635E+02
      1.919  0.4531E+01  0.1645E+02
      1.939  0.4332E+01  0.1654E+02
      1.959  0.4182E+01  0.1662E+02
      1.979  0.4067E+01  0.1671E+02
      1.999  0.4014E+01  0.1679E+02
      2.019  0.3985E+01  0.1687E+02
      2.040  0.3895E+01  0.1695E+02
      2.060  0.3836E+01  0.1703E+02
      2.080  0.3777E+01  0.1710E+02
      2.100  0.3771E+01  0.1718E+02
      2.120  0.3785E+01  0.1725E+02
      2.140  0.3797E+01  0.1733E+02
      2.161  0.3807E+01  0.1741E+02
      2.181  0.3835E+01  0.1750E+02
      2.201  0.3867E+01  0.1757E+02
      2.221  0.3931E+01  0.1765E+02
      2.241  0.4007E+01  0.1773E+02
      2.261  0.4095E+01  0.1781E+02
      2.281  0.4302E+01  0.1790E+02
      2.302  0.4777E+01  0.1803E+02
      2.322  0.4797E+01  0.1813E+02
      2.342  0.4619E+01  0.1823E+02
      2.362  0.4549E+01  0.1832E+02
      2.382  0.4482E+01  0.1841E+02
      2.402  0.4425E+01  0.1850E+02
      2.422  0.4590E+01  0.1859E+02
      2.443  0.4137E+01  0.1868E+02
      2.463  0.4028E+01  0.1876E+02
      2.483  0.3984E+01  0.1884E+02
      2.503  0.3955E+01  0.1892E+02
      2.523  0.3937E+01  0.1900E+02
      2.543  0.4199E+01  0.1909E+02
      2.564  0.4202E+01  0.1917E+02
      2.584  0.4098E+01  0.1926E+02
      2.604  0.4039E+01  0.1934E+02
      2.624  0.3953E+01  0.1942E+02
      2.644  0.4033E+01  0.1950E+02
      2.664  0.4458E+01  0.1959E+02
      2.684  0.4818E+01  0.1968E+02
      2.705  0.4935E+01  0.1978E+02
      2.725  0.5003E+01  0.1988E+02
      2.745  0.5088E+01  0.1998E+02
      2.765  0.5168E+01  0.2009E+02
      2.785  0.4972E+01  0.2019E+02
      2.805  0.4984E+01  0.2029E+02
      2.825  0.4948E+01  0.2039E+02
      2.846  0.5106E+01  0.2049E+02
      2.866  0.5230E+01  0.2060E+02
      2.886  0.5264E+01  0.2070E+02
      2.906  0.5291E+01  0.2081E+02
      2.926  0.5248E+01  0.2092E+02
      2.946  0.6089E+01  0.2103E+02
      2.967  0.5955E+01  0.2115E+02
      2.987  0.5683E+01  0.2127E+02
      3.007  0.5583E+01  0.2138E+02
      3.027  0.4869E+01  0.2149E+02
      3.047  0.5118E+01  0.2159E+02
      3.067  0.5554E+01  0.2170E+02
      3.087  0.6247E+01  0.2182E+02
      3.108  0.7114E+01  0.2195E+02
      3.128  0.8710E+01  0.2211E+02
      3.148  0.7114E+01  0.2226E+02
      3.168  0.7276E+01  0.2241E+02
      3.188  0.7502E+01  0.2255E+02
      3.208  0.7692E+01  0.2271E+02
      3.229  0.5922E+01  0.2285E+02
      3.249  0.5039E+01  0.2296E+02
      3.269  0.4818E+01  0.2306E+02
      3.289  0.4606E+01  0.2315E+02
      3.309  0.4402E+01  0.2324E+02
      3.329  0.4207E+01  0.2333E+02
      3.349  0.4395E+01  0.2341E+02
      3.370  0.4300E+01  0.2350E+02
      3.390  0.4427E+01  0.2359E+02
      3.410  0.4850E+01  0.2368E+02
      3.430  0.5343E+01  0.2378E+02
      3.450  0.5603E+01  0.2389E+02
      3.470  0.6062E+01  0.2401E+02
      3.490  0.6501E+01  0.2414E+02
      3.511  0.6832E+01  0.2427E+02
      3.531  0.6692E+01  0.2441E+02
      3.551  0.6697E+01  0.2454E+02
      3.571  0.6666E+01  0.2468E+02
      3.591  0.6682E+01  0.2481E+02
      3.611  0.6347E+01  0.2494E+02
      3.632  0.5981E+01  0.2507E+02
      3.652  0.5610E+01  0.2519E+02
      3.672  0.5276E+01  0.2529E+02
      3.692  0.5024E+01  0.2540E+02
      3.712  0.4794E+01  0.2550E+02
      3.732  0.4733E+01  0.2560E+02
      3.752  0.4680E+01  0.2569E+02
      3.773  0.4633E+01  0.2579E+02
      3.793  0.5059E+01  0.2589E+02
      3.813  0.5211E+01  0.2599E+02
      3.833  0.5610E+01  0.2610E+02
      3.853  0.4928E+01  0.2620E+02
      3.873  0.4927E+01  0.2631E+02
      3.893  0.4544E+01  0.2640E+02
      3.914  0.4784E+01  0.2649E+02
      3.934  0.4765E+01  0.2659E+02
      3.954  0.4737E+01  0.2668E+02
      3.974  0.4782E+01  0.2678E+02
      3.994  0.4846E+01  0.2689E+02
      4.014  0.4911E+01  0.2698E+02
      4.035  0.4983E+01  0.2708E+02
      4.055  0.5053E+01  0.2719E+02
      4.075  0.5102E+01  0.2729E+02
      4.095  0.5820E+01  0.2740E+02
      4.115  0.5460E+01  0.2751E+02
      4.135  0.5050E+01  0.2762E+02
      4.155  0.4809E+01  0.2773E+02
      4.176  0.4766E+01  0.2782E+02
      4.196  0.4730E+01  0.2792E+02
      4.216  0.4699E+01  0.2802E+02
      4.236  0.4674E+01  0.2811E+02
      4.256  0.4660E+01  0.2820E+02
      4.276  0.4908E+01  0.2831E+02
      4.296  0.5466E+01  0.2841E+02
      4.317  0.6283E+01  0.2853E+02
      4.337  0.5715E+01  0.2865E+02
      4.357  0.5346E+01  0.2876E+02
      4.377  0.5205E+01  0.2887E+02
      4.397  0.5277E+01  0.2899E+02
      4.417  0.4390E+01  0.2909E+02
      4.438  0.4182E+01  0.2918E+02
      4.458  0.3937E+01  0.2926E+02
      4.478  0.3884E+01  0.2934E+02
      4.498  0.3759E+01  0.2942E+02
      4.518  0.3783E+01  0.2949E+02
      4.538  0.3594E+01  0.2957E+02
      4.558  0.3357E+01  0.2964E+02
      4.579  0.2757E+01  0.2971E+02
      4.599  0.2738E+01  0.2976E+02
      4.619  0.2928E+01  0.2982E+02
      4.639  0.3132E+01  0.2988E+02
      4.659  0.3470E+01  0.2995E+02
      4.679  0.3662E+01  0.3002E+02
      4.699  0.3877E+01  0.3010E+02
      4.720  0.4057E+01  0.3018E+02
      4.740  0.4562E+01  0.3026E+02
      4.760  0.4843E+01  0.3038E+02
      4.780  0.4552E+01  0.3048E+02
      4.800  0.4246E+01  0.3057E+02
      4.820  0.3821E+01  0.3065E+02
      4.841  0.3256E+01  0.3072E+02
      4.861  0.2471E+01  0.3077E+02
      4.881  0.2411E+01  0.3082E+02
      4.901  0.2355E+01  0.3087E+02
      4.921  0.2397E+01  0.3092E+02
      4.941  0.2407E+01  0.3097E+02
      4.961  0.2347E+01  0.3102E+02
      4.982  0.2223E+01  0.3106E+02
      5.002  0.2109E+01  0.3110E+02
      5.022  0.2044E+01  0.3115E+02
      5.042  0.1976E+01  0.3119E+02
      5.062  0.1904E+01  0.3123E+02
      5.082  0.1834E+01  0.3126E+02
      5.102  0.1777E+01  0.3130E+02
      5.123  0.1734E+01  0.3134E+02
      5.143  0.1698E+01  0.3137E+02
      5.163  0.1657E+01  0.3140E+02
      5.183  0.1605E+01  0.3144E+02
      5.203  0.1635E+01  0.3147E+02
      5.223  0.1421E+01  0.3150E+02
      5.244  0.1382E+01  0.3153E+02
      5.264  0.1344E+01  0.3156E+02
      5.284  0.1307E+01  0.3159E+02
      5.304  0.1336E+01  0.3161E+02
      5.324  0.1441E+01  0.3164E+02
      5.344  0.1385E+01  0.3167E+02
      5.364  0.1239E+01  0.3170E+02
      5.385  0.1192E+01  0.3172E+02
      5.405  0.1143E+01  0.3174E+02
      5.425  0.1092E+01  0.3177E+02
      5.445  0.1038E+01  0.3179E+02
      5.465  0.1122E+01  0.3181E+02
      5.485  0.9449E+00  0.3183E+02
      5.505  0.8082E+00  0.3185E+02
      5.526  0.7017E+00  0.3187E+02
      5.546  0.6572E+00  0.3188E+02
      5.566  0.6154E+00  0.3189E+02
      5.586  0.5762E+00  0.3190E+02
      5.606  0.5398E+00  0.3192E+02
      5.626  0.7583E+00  0.3193E+02
      5.647  0.7123E+00  0.3195E+02
      5.667  0.6295E+00  0.3196E+02
      5.687  0.5098E+00  0.3197E+02
      5.707  0.3533E+00  0.3198E+02
      5.727  0.2747E+00  0.3199E+02
      5.747  0.2082E+00  0.3199E+02
      5.767  0.1487E+00  0.3199E+02
      5.788  0.0000E+00  0.3200E+02
      5.808  0.0000E+00  0.3200E+02
      5.828  0.0000E+00  0.3200E+02
      5.848  0.0000E+00  0.3200E+02
      5.868  0.0000E+00  0.3200E+02
      5.888  0.0000E+00  0.3200E+02
      5.909  0.0000E+00  0.3200E+02
      5.929  0.0000E+00  0.3200E+02
      5.949  0.0000E+00  0.3200E+02
      5.969  0.0000E+00  0.3200E+02
      5.989  0.0000E+00  0.3200E+02
      6.009  0.0000E+00  0.3200E+02
      6.029  0.0000E+00  0.3200E+02
      6.050  0.0000E+00  0.3200E+02
      6.070  0.0000E+00  0.3200E+02
      6.090  0.0000E+00  0.3200E+02
      6.110  0.0000E+00  0.3200E+02
      6.130  0.0000E+00  0.3200E+02
      6.150  0.0000E+00  0.3200E+02
      6.170  0.0000E+00  0.3200E+02
      6.191  0.0000E+00  0.3200E+02
      6.211  0.0000E+00  0.3200E+02
      6.231  0.0000E+00  0.3200E+02
      6.251  0.0000E+00  0.3200E+02
      6.271  0.0000E+00  0.3200E+02
      6.291  0.0000E+00  0.3200E+02
      6.312  0.0000E+00  0.3200E+02
      6.332  0.0000E+00  0.3200E+02
      6.352  0.0000E+00  0.3200E+02
      6.372  0.0000E+00  0.3200E+02
      6.392  0.0000E+00  0.3200E+02
      6.412  0.0000E+00  0.3200E+02
      6.432  0.0000E+00  0.3200E+02
      6.453  0.0000E+00  0.3200E+02
      6.473  0.0000E+00  0.3200E+02
      6.493  0.0000E+00  0.3200E+02
      6.513  0.0000E+00  0.3200E+02
      6.533  0.1012E+01  0.3201E+02
      6.553  0.6295E+00  0.3204E+02
      6.573  0.7101E+00  0.3205E+02
      6.594  0.6128E+00  0.3206E+02
      6.614  0.6462E+00  0.3208E+02
      6.634  0.6800E+00  0.3209E+02
      6.654  0.7143E+00  0.3210E+02
      6.674  0.7489E+00  0.3212E+02
      6.694  0.7840E+00  0.3213E+02
      6.715  0.8194E+00  0.3215E+02
      6.735  0.8222E+00  0.3217E+02
      6.755  0.8631E+00  0.3218E+02
      6.775  0.9158E+00  0.3220E+02
      6.795  0.9735E+00  0.3222E+02
      6.815  0.1104E+01  0.3224E+02
      6.835  0.1190E+01  0.3227E+02
      6.856  0.2181E+01  0.3230E+02
      6.876  0.1814E+01  0.3234E+02
      6.896  0.1409E+01  0.3237E+02
      6.916  0.1475E+01  0.3240E+02
      6.936  0.1543E+01  0.3243E+02
      6.956  0.1614E+01  0.3246E+02
      6.976  0.1684E+01  0.3250E+02
      6.997  0.1936E+01  0.3254E+02
      7.017  0.1956E+01  0.3258E+02
      7.037  0.1975E+01  0.3262E+02
      7.057  0.2007E+01  0.3266E+02
      7.077  0.2037E+01  0.3270E+02
      7.097  0.1975E+01  0.3274E+02
      7.118  0.1952E+01  0.3278E+02
      7.138  0.1929E+01  0.3282E+02
      7.158  0.1913E+01  0.3286E+02
      7.178  0.1926E+01  0.3290E+02
      7.198  0.1951E+01  0.3293E+02
      7.218  0.1984E+01  0.3297E+02
      7.238  0.2022E+01  0.3301E+02
      7.259  0.2063E+01  0.3306E+02
      7.279  0.2206E+01  0.3311E+02
      7.299  0.2263E+01  0.3315E+02
      7.319  0.2322E+01  0.3320E+02
      7.339  0.2383E+01  0.3324E+02
      7.359  0.2446E+01  0.3329E+02
      7.379  0.2475E+01  0.3334E+02
      7.400  0.2552E+01  0.3339E+02
      7.420  0.2636E+01  0.3345E+02
      7.440  0.2676E+01  0.3350E+02
      7.460  0.2716E+01  0.3356E+02
      7.480  0.3114E+01  0.3361E+02
      7.500  0.3054E+01  0.3368E+02
      7.521  0.3089E+01  0.3374E+02
      7.541  0.3181E+01  0.3380E+02
      7.561  0.3282E+01  0.3386E+02
      7.581  0.3484E+01  0.3393E+02
      7.601  0.3566E+01  0.3400E+02
      7.621  0.3624E+01  0.3408E+02
      7.641  0.3762E+01  0.3416E+02
      7.662  0.3898E+01  0.3423E+02
      7.682  0.4201E+01  0.3432E+02
      7.702  0.4322E+01  0.3440E+02
      7.722  0.4292E+01  0.3449E+02
      7.742  0.4339E+01  0.3458E+02
      7.762  0.4430E+01  0.3466E+02
      7.782  0.4531E+01  0.3475E+02
      7.803  0.4621E+01  0.3485E+02
      7.823  0.4655E+01  0.3494E+02
      7.843  0.4603E+01  0.3503E+02
      7.863  0.4554E+01  0.3513E+02
      7.883  0.4452E+01  0.3522E+02
      7.903  0.4358E+01  0.3530E+02
      7.924  0.4470E+01  0.3539E+02
      7.944  0.4645E+01  0.3548E+02
      7.964  0.5513E+01  0.3559E+02
      7.984  0.7193E+01  0.3572E+02
      8.004  0.7239E+01  0.3587E+02
      8.024  0.7201E+01  0.3602E+02
      8.044  0.7127E+01  0.3617E+02
      8.065  0.6846E+01  0.3631E+02
      8.085  0.6596E+01  0.3645E+02
      8.105  0.6428E+01  0.3658E+02
      8.125  0.5413E+01  0.3670E+02
      8.145  0.4703E+01  0.3680E+02
      8.165  0.5872E+01  0.3689E+02
      8.185  0.4579E+01  0.3699E+02
      8.206  0.4634E+01  0.3708E+02
      8.226  0.4890E+01  0.3718E+02
      8.246  0.4991E+01  0.3728E+02
      8.266  0.4899E+01  0.3738E+02
      8.286  0.4841E+01  0.3748E+02
      8.306  0.4667E+01  0.3758E+02
      8.327  0.4604E+01  0.3767E+02
      8.347  0.4659E+01  0.3777E+02
      8.367  0.4831E+01  0.3786E+02
      8.387  0.4967E+01  0.3796E+02
      8.407  0.5072E+01  0.3806E+02
      8.427  0.5162E+01  0.3816E+02
      8.447  0.5089E+01  0.3827E+02
      8.468  0.5262E+01  0.3837E+02
      8.488  0.5318E+01  0.3848E+02
      8.508  0.5691E+01  0.3862E+02
      8.528  0.5600E+01  0.3873E+02